HEADER
"PSFversion" "1.00"
"U6v" "xu6v"
"U7v" "xu7v"
"U8v" "xu8v"
"U0v" "xu0v"
"U5v" "xu5v"
"U6n U7n U8n U0n" "nand_pcell_5"
"U10v" "xu10v"
"U11v" "xu11v"
"U12v" "xu12v"
"U5n U10n U11n U12n" "inv_pcell_6"
"predecv" "(FUNCTION (plus (root \"U6/B\") (root \"U0/B\")))v"
"predec_255v" "(FUNCTION (plus (root \"U8/B\") (root \"U7/B\")))v"
"WL0v" "(FUNCTION (plus (root \"U5/Y\")))v"
"WL255v" "(FUNCTION (plus (root \"U11/Y\")))v"
