HEADER
"PSFversion" "1.00"
"M10v" "m10v"
"M9v" "m9v"
"M1v" "m1v"
"M7v" "m7v"
"M10n M9n M1n" "ee313_nmos4_hspiceD"
"M6v" "m6v"
"M0v" "m0v"
"M7n M6n M0n" "ee313_pmos4_hspiceD"
"Av" "(FUNCTION (plus (root \"M1/G\") (root \"M0/G\")))v"
"Cv" "(FUNCTION (plus (root \"M7/G\") (root \"M10/G\")))v"
"Bv" "(FUNCTION (plus (root \"M6/G\") (root \"M9/G\")))v"
"Yv" "(FUNCTION (plus (root \"M7/D\") (root \"M6/D\") (root \"M1/D\") (root \"M0/D\")))v"
