HEADER
"PSFversion" "1.00"
"Av" "av"
"Yv" "yv"
"Bv" "bv"
"Cv" "cv"
