HEADER
"PSFversion" "1.00"
"Av" "av"
"Bv" "bv"
"Yv" "yv"
"mid_Av" "mid_av"
