HEADER
"PSFversion" "1.00"
"Address0v" "address0v"
"Address255v" "address255v"
