HEADER
"PSFversion" "1.00"
"WL0v" "wl0v"
"WL255v" "wl255v"
