HEADER
"PSFversion" "1.00"
"I4v" "xi4v"
"I9v" "xi9v"
"I4n" "predecode_24"
"I13v" "xi13v"
"I9n" "predecode_416"
"C1v" "c1v"
"I13n" "decode_stage"
"C0v" "c0v"
"C1n C0n" "ee313_cap_hspiceD"
