HEADER
"PSFversion" "1.00"
"M1v" "m1v"
"M2v" "m2v"
"M1n" "ee313_pmos4_hspiceD"
"M2n" "ee313_nmos4_hspiceD"
"Av" "(FUNCTION (plus (root \"M1/G\") (root \"M2/G\")))v"
"Yv" "(FUNCTION (plus (root \"M1/D\") (root \"M2/D\")))v"
