HEADER
"PSFversion" "1.00"
"M2v" "m2v"
"M0v" "m0v"
"M3v" "m3v"
"M2n M0n" "ee313_pmos4_hspiceD"
"M1v" "m1v"
"M3n M1n" "ee313_nmos4_hspiceD"
"Av" "(FUNCTION (plus (root \"M0/G\") (root \"M1/G\")))v"
"Bv" "(FUNCTION (plus (root \"M2/G\") (root \"M3/G\")))v"
"Yv" "(FUNCTION (plus (root \"M0/D\") (root \"M1/D\") (root \"M2/D\")))v"
