HEADER
"PSFversion" "1.00"
"M12v" "m12v"
"M13v" "m13v"
"M1v" "m1v"
"M7v" "m7v"
"M12n M13n M1n" "ee313_nmos4_hspiceD"
"M11v" "m11v"
"M8v" "m8v"
"M7n M11n M8n" "ee313_pmos4_hspiceD"
"Av" "(FUNCTION (plus (root \"M1/G\") (root \"M11/G\")))v"
"Cv" "(FUNCTION (plus (root \"M7/G\") (root \"M13/G\")))v"
"Bv" "(FUNCTION (plus (root \"M8/G\") (root \"M12/G\")))v"
"Yv" "(FUNCTION (plus (root \"M7/D\") (root \"M8/D\") (root \"M1/D\") (root \"M11/D\")))v"
